version 3
run General-0-20250513-12:55:32-6636
attr configname General
attr datetime 20250513-12:55:32
attr datetimef 20250513-125532
attr experiment General
attr inifile omnetpp.ini
attr iterationvars ""
attr iterationvarsd ""
attr iterationvarsf ""
attr measurement ""
attr network Network
attr processid 6636
attr repetition 0
attr replication #0
attr resultdir results
attr runnumber 0
attr seedset 0
config network Network
config sim-time-limit 400s
config Network.nodeTx.gen.generationInterval exponential(0.1)
config Network.nodeTx.gen.packetByteSize 12500
config Network.nodeTx.queue.bufferSize 2000000
config Network.nodeTx.traTx.bufferSize 2000000
config Network.queue0.bufferSize 200
config Network.queue1.bufferSize 200
config Network.nodeRx.traRx.bufferSize 200

vector 0 Network.nodeTx.gen pkt_send ETV
vector 1 Network.nodeTx.traTx "buffer size" ETV
vector 2 Network.queue0 "Buffer size" ETV
vector 3 Network.nodeRx.traRx "buffer size" ETV
vector 4 Network.queue1 "Buffer size" ETV
vector 5 Network.nodeTx.traTx delay_pkt ETV
vector 6 Network.nodeRx.sink "Pkt recv" ETV
0	1	0.079587450457	1
0	4	0.169443489305	2
0	18	0.29503656511	3
0	32	0.480996986317	4
0	37	0.573319299464	5
0	52	0.768473833052	6
0	57	0.84719394705	7
0	72	1.03509035247	8
0	83	1.090195201137	9
0	88	1.187895843776	10
0	100	1.291711773842	11
0	106	1.340224590214	12
0	108	1.397776509902	13
0	110	1.433092423816	14
0	130	1.65544486602	15
0	132	1.661283332929	16
0	158	1.992774560922	17
0	161	2.024610175006	18
0	165	2.072970385501	19
0	176	2.137915020326	20
0	192	2.294804632088	21
0	198	2.46202575212	22
0	210	2.537293163451	23
0	215	2.602681420173	24
0	224	2.686624705463	25
0	230	2.736511906365	26
0	246	2.99633731495	27
0	261	3.177174241377	28
0	263	3.184542776924	29
0	266	3.225700576548	30
0	268	3.23481667916	31
0	280	3.339277929991	32
0	282	3.341320488831	33
0	285	3.387245302557	34
0	300	3.565994068901	35
0	322	3.881011061769	36
0	328	4.031589487633	37
0	330	4.046712572999	38
0	344	4.250743998793	39
0	359	4.454833220384	40
0	380	4.839355407298	41
0	391	4.903526324566	42
0	398	5.064050280272	43
0	408	5.225450487761	44
0	419	5.287343433724	45
0	421	5.360839875843	46
0	434	5.512493473242	47
0	438	5.626087367413	48
0	440	5.638674808357	49
0	451	5.766197578579	50
0	455	5.868340766014	51
0	466	5.955572885518	52
0	468	5.971045853568	53
0	472	6.048129319415	54
0	494	6.337571367214	55
0	498	6.479707835223	56
0	509	6.553490564399	57
0	511	6.564685180462	58
0	515	6.618241752485	59
0	523	6.682411222688	60
0	527	6.713139257903	61
0	530	6.733759586106	62
0	540	6.882585068681	63
0	545	7.016114087143	64
0	549	7.077022329461	65
0	557	7.101427178535	66
0	562	7.185460649096	67
0	564	7.199988451825	68
0	566	7.201885308745	69
0	570	7.241062389813	70
0	581	7.33720048372	71
0	583	7.353414132665	72
0	587	7.448113800382	73
0	589	7.473257993589	74
0	600	7.569212791326	75
0	602	7.618068496257	76
0	623	7.905859998385	77
0	636	8.138751335806	78
0	641	8.253265231276	79
0	651	8.313039838958	80
0	653	8.357591688463	81
0	658	8.452541146813	82
0	668	8.509994387487	83
0	681	8.742629493656	84
0	686	8.862240273602	85
0	688	8.87269639618	86
0	690	8.878907925227	87
0	714	9.228929293672	88
0	724	9.338820540427	89
0	729	9.444703953576	90
0	739	9.555763698145	91
0	741	9.574506304747	92
0	743	9.598126975355	93
0	748	9.642467378217	94
0	750	9.65627024706	95
0	760	9.795174516039	96
0	765	9.833070712467	97
0	775	9.926676868444	98
0	777	9.971887074466	99
0	779	10.011198330196	100
0	790	10.095641109549	101
0	792	10.09955942519	102
0	796	10.157291856271	103
0	801	10.257878956788	104
0	831	10.703328641406	105
0	846	11.022623305611	106
0	848	11.033386816427	107
0	859	11.139169457762	108
0	861	11.16259960964	109
0	865	11.263401534182	110
0	876	11.280992888725	111
0	902	11.817002923749	112
0	913	11.922877195258	113
0	917	12.010068780621	114
0	919	12.039276833948	115
0	927	12.092783301656	116
0	932	12.155577459755	117
0	936	12.219955559915	118
0	938	12.247983260763	119
0	949	12.34566966817	120
0	951	12.362982413785	121
0	953	12.404232536777	122
0	957	12.415928077756	123
0	968	12.528244907909	124
0	972	12.635052127624	125
0	974	12.673207711961	126
0	982	12.688078938886	127
0	989	12.838742472213	128
0	991	12.860630531864	129
0	1013	13.159349521049	130
0	1015	13.205350916823	131
0	1025	13.313977854911	132
0	1038	13.486011020683	133
0	1040	13.487377478526	134
0	1042	13.497591966678	135
0	1047	13.595102160094	136
0	1060	13.777084052022	137
0	1070	13.889065488597	138
0	1072	13.899168966128	139
0	1088	14.256527803362	140
0	1112	14.63143094932	141
0	1125	14.841963079399	142
0	1135	14.905196739039	143
0	1137	14.976455098372	144
0	1161	15.352647826822	145
0	1163	15.358380519464	146
0	1168	15.451228369154	147
0	1176	15.511223057818	148
0	1183	15.645647585033	149
0	1185	15.647666597848	150
0	1187	15.651664227754	151
0	1195	15.709952066641	152
0	1199	15.743193090737	153
0	1221	16.132350103022	154
0	1223	16.145155779553	155
0	1227	16.189697725745	156
0	1229	16.224815334683	157
0	1240	16.290379963119	158
0	1242	16.303018826762	159
0	1246	16.419706179417	160
0	1250	16.457976274303	161
0	1264	16.670399994003	162
0	1272	16.723888431579	163
0	1285	16.974279609888	164
0	1289	16.980909350036	165
0	1291	17.005348894844	166
0	1302	17.123267847551	167
0	1306	17.206552199158	168
0	1317	17.290161952355	169
0	1329	17.490486004606	170
0	1332	17.521327488616	171
0	1334	17.592452282338	172
0	1338	17.666528177383	173
0	1360	17.915086413081	174
0	1362	17.924951443923	175
0	1375	18.178981894719	176
0	1379	18.264771458826	177
0	1381	18.27344850706	178
0	1403	18.538374099928	179
0	1405	18.570908141481	180
0	1407	18.609264162891	181
0	1409	18.610204237957	182
0	1419	18.720288828966	183
0	1432	18.905021594066	184
0	1434	18.919154665422	185
0	1439	19.02333273084	186
0	1451	19.149326111851	187
0	1462	19.333454359	188
0	1467	19.367619775703	189
0	1469	19.398371548079	190
0	1471	19.418606591936	191
0	1475	19.469326604262	192
0	1483	19.557639508458	193
0	1488	19.638119248438	194
0	1490	19.640150494318	195
0	1492	19.658175719516	196
0	1505	19.834749826757	197
0	1515	19.880922916361	198
0	1517	19.88139357041	199
0	1519	19.897227721033	200
0	1524	20.01049113523	201
0	1534	20.094799438445	202
0	1536	20.12627160453	203
0	1541	20.247922469874	204
0	1551	20.380798257249	205
0	1556	20.414832931073	206
0	1577	20.742347248844	207
0	1579	20.799137664192	208
0	1584	20.827739761443	209
0	1594	20.968842202372	210
0	1599	21.054681499155	211
0	1607	21.105115879814	212
0	1611	21.194774966893	213
0	1624	21.421148324479	214
0	1635	21.506070405635	215
0	1639	21.607936278637	216
0	1641	21.633178277926	217
0	1657	21.855328967773	218
0	1678	22.160557133461	219
0	1683	22.274517929814	220
0	1691	22.333780332559	221
0	1695	22.393418271992	222
0	1708	22.580764259978	223
0	1730	22.965064918302	224
0	1740	23.085288775027	225
0	1745	23.097641439763	226
0	1747	23.13294345309	227
0	1751	23.278625308946	228
0	1764	23.446717529401	229
0	1772	23.499789779063	230
0	1777	23.550291653838	231
0	1781	23.662819855522	232
0	1794	23.875769795129	233
0	1802	23.904510842736	234
0	1807	23.991564425369	235
0	1811	24.02913830961	236
0	1824	24.242621354608	237
0	1846	24.579058399913	238
0	1856	24.696996693277	239
0	1861	24.785782834321	240
0	1871	24.914973761201	241
0	1876	25.022757249615	242
0	1886	25.092337195705	243
0	1890	25.168523972835	244
0	1912	25.481070808601	245
0	1914	25.507276532769	246
0	1919	25.610556233834	247
0	1921	25.66078731366	248
0	1931	25.715926912673	249
0	1936	25.812372269222	250
0	1946	25.905612557263	251
0	1948	25.970023028095	252
0	1950	25.97196100623	253
0	1955	26.035473777793	254
0	1957	26.07136649938	255
0	1967	26.197270851106	256
0	1978	26.305202870972	257
0	1982	26.33916934423	258
0	1984	26.3734293067	259
0	1989	26.421792875359	260
0	1999	26.518030380936	261
0	2004	26.65632830159	262
0	2012	26.712324408597	263
0	2025	26.923069169092	264
0	2029	26.937626566937	265
0	2031	26.948481276786	266
0	2033	26.983903690011	267
0	2035	26.993595965469	268
0	2040	27.077984812728	269
0	2048	27.121687614105	270
0	2052	27.211060521936	271
0	2063	27.291315720512	272
0	2067	27.376723694076	273
0	2069	27.380144035912	274
0	2080	27.48604497445	275
0	2095	27.833298522378	276
0	2106	27.938883483244	277
0	2110	27.977596492459	278
0	2112	28.034057542571	279
0	2114	28.059065692069	280
0	2136	28.285929091338	281
0	2138	28.301158453863	282
0	2140	28.346975742259	283
0	2142	28.357207803744	284
0	2146	28.414453958887	285
0	2170	28.828234934938	286
0	2183	29.050726400661	287
0	2191	29.080882991983	288
0	2198	29.244972749776	289
0	2209	29.321980435731	290
0	2213	29.443682385265	291
0	2221	29.503089735097	292
0	2223	29.51365099946	293
0	2228	29.52413918302	294
0	2241	29.776067396028	295
0	2243	29.819501961622	296
0	2256	29.944762714113	297
0	2258	30.008108975885	298
0	2301	30.684648027879	299
0	2308	30.868621306387	300
0	2316	30.884808315058	301
0	2329	31.119826044033	302
0	2342	31.322416925743	303
0	2344	31.326245217031	304
0	2346	31.343977774546	305
0	2351	31.414969567268	306
0	2361	31.51056620966	307
0	2363	31.528820069848	308
0	2365	31.542038440809	309
0	2376	31.69302078637	310
0	2389	31.881413675029	311
0	2402	32.081612324582	312
0	2409	32.246284234715	313
0	2417	32.299284522529	314
0	2421	32.383472618702	315
0	2423	32.398551719721	316
0	2428	32.45083872273	317
0	2430	32.454217401285	318
0	2432	32.461384939716	319
0	2456	32.866369623596	320
0	2466	32.985913480224	321
0	2468	33.032640736865	322
0	2479	33.09307064405	323
0	2481	33.147556356864	324
0	2488	33.275589777245	325
0	2496	33.280781032463	326
0	2509	33.482058306084	327
0	2511	33.527549490563	328
0	2535	33.898545549753	329
0	2537	33.900222326352	330
0	2550	34.093880050101	331
0	2552	34.120112981018	332
0	2554	34.12129130421	333
0	2558	34.266070712409	334
0	2569	34.310695994461	335
0	2582	34.599157169671	336
0	2595	34.730087006073	337
0	2599	34.868716141275	338
0	2607	34.887545638797	339
0	2612	34.929006893063	340
0	2614	35.002620003062	341
0	2618	35.069866054745	342
0	2620	35.075453060034	343
0	2630	35.116850952301	344
0	2633	35.139164873111	345
0	2635	35.158947823857	346
0	2637	35.160817370899	347
0	2639	35.179569266019	348
0	2652	35.33741053823	349
0	2654	35.399670272628	350
0	2656	35.425020843142	351
0	2669	35.632623949186	352
0	2673	35.674989659322	353
0	2695	35.963444088163	354
0	2708	36.226665974418	355
0	2718	36.32037984619	356
0	2723	36.442259526524	357
0	2733	36.533055929256	358
0	2735	36.536291609721	359
0	2748	36.689374732348	360
0	2750	36.707370466503	361
0	2754	36.776690443457	362
0	2757	36.873838659266	363
0	2759	36.879006949846	364
0	2769	36.965099313514	365
0	2780	37.085196404168	366
0	2784	37.112363211202	367
0	2808	37.600276500001	368
0	2824	37.872411325592	369
0	2832	37.903508106089	370
0	2836	37.998691076843	371
0	2847	38.112350726369	372
0	2851	38.189058691826	373
0	2864	38.388775888575	374
0	2869	38.477913746266	375
0	2879	38.616881452644	376
0	2892	38.74785998978	377
0	2914	39.081653423165	378
0	2916	39.119042072755	379
0	2920	39.199840078095	380
0	2922	39.250626590364	381
0	2927	39.274501877649	382
0	2935	39.298054334991	383
0	2937	39.323214196302	384
0	2939	39.34381740115	385
0	2941	39.36850332803	386
0	2956	39.65741088722	387
0	2967	39.741708764761	388
0	2971	39.876243508084	389
0	2982	39.936411406736	390
0	2986	40.0038358637	391
0	3008	40.355283731754	392
0	3010	40.381085008148	393
0	3020	40.495198798434	394
0	3025	40.524549563626	395
0	3027	40.533464992626	396
0	3029	40.539443088918	397
0	3031	40.54525032513	398
0	3033	40.602240081661	399
0	3037	40.66915145403	400
0	3045	40.706518433469	401
0	3058	40.919385442922	402
0	3065	41.038571253287	403
0	3087	41.41324071467	404
0	3091	41.460682343703	405
0	3102	41.55682630086	406
0	3104	41.576623074393	407
0	3108	41.654820646481	408
0	3110	41.657319481812	409
0	3121	41.8501554955	410
0	3123	41.857117262607	411
0	3136	41.993310435038	412
0	3146	42.107064285592	413
0	3150	42.172187358784	414
0	3153	42.232645480618	415
0	3163	42.345681035209	416
0	3168	42.422593015319	417
0	3178	42.51599904858	418
0	3191	42.742983050158	419
0	3196	42.868403377167	420
0	3228	43.332368629804	421
0	3230	43.395761631743	422
0	3235	43.420210733947	423
0	3243	43.481094025321	424
0	3247	43.589884468682	425
0	3262	43.826776285766	426
0	3265	43.857336775947	427
0	3267	43.872096379236	428
0	3269	43.874183101097	429
0	3277	43.900218242252	430
0	3284	44.042256587811	431
0	3297	44.255612916558	432
0	3305	44.294181685963	433
0	3318	44.528966062106	434
0	3322	44.577329900855	435
0	3333	44.681114908404	436
0	3337	44.769865101252	437
0	3339	44.809122404071	438
0	3352	44.986936737754	439
0	3354	45.060273505071	440
0	3365	45.159423934361	441
0	3367	45.159429469551	442
0	3380	45.365511593639	443
0	3384	45.402887923021	444
0	3386	45.434845388508	445
0	3397	45.490262471413	446
0	3401	45.650234415597	447
0	3414	45.866810783684	448
0	3422	45.887345560558	449
0	3427	46.001251325625	450
0	3448	46.306569792584	451
0	3453	46.367474253855	452
0	3463	46.483785582198	453
0	3468	46.549835890173	454
0	3470	46.57410773954	455
0	3482	46.729574033321	456
0	3496	47.024022061063	457
0	3500	47.050086074001	458
0	3511	47.181336873298	459
0	3524	47.393611538692	460
0	3526	47.422906684541	461
0	3530	47.460549619693	462
0	3538	47.484541971637	463
0	3554	47.800251525779	464
0	3558	47.873274292303	465
0	3566	47.937093152862	466
0	3568	47.939692927381	467
0	3573	48.064028005176	468
0	3583	48.087280507014	469
0	3585	48.103967971137	470
0	3587	48.159251808202	471
0	3600	48.290349045018	472
0	3602	48.337216692616	473
0	3607	48.441137256274	474
0	3617	48.50342018725	475
0	3619	48.527612151727	476
0	3621	48.560133753525	477
0	3623	48.580769552885	478
0	3628	48.669148118488	479
0	3641	48.833955735804	480
0	3654	49.033359655932	481
0	3664	49.170827651312	482
0	3666	49.183330910304	483
0	3677	49.295676960259	484
0	3681	49.368529344532	485
0	3683	49.400949255881	486
0	3685	49.415113459361	487
0	3690	49.434339603445	488
0	3700	49.560520870794	489
0	3711	49.682420805312	490
0	3713	49.732848798637	491
0	3717	49.795052490545	492
0	3722	49.87839031461	493
0	3735	50.061916654904	494
0	3743	50.082162531274	495
0	3745	50.105086963795	496
0	3747	50.120734540833	497
0	3749	50.138761970791	498
0	3753	50.205716029877	499
0	3755	50.219050092204	500
0	3760	50.262995631253	501
0	3770	50.391038066651	502
0	3785	50.673101661493	503
0	3788	50.676194290649	504
0	3798	50.821149768292	505
0	3809	50.958584069734	506
0	3822	51.096680379301	507
0	3824	51.106397147138	508
0	3837	51.340446343204	509
0	3839	51.364966152468	510
0	3841	51.373677010794	511
0	3854	51.512008657409	512
0	3856	51.592347833676	513
0	3869	51.723910459506	514
0	3873	51.811731967378	515
0	3875	51.816400741742	516
0	3897	52.143250381824	517
0	3899	52.16671596675	518
0	3901	52.201267925121	519
0	3905	52.235083396605	520
0	3907	52.262636190309	521
0	3918	52.375728038228	522
0	3920	52.386296755638	523
0	3922	52.392808042117	524
0	3924	52.394464651559	525
0	3928	52.475578753782	526
0	3949	52.740834605334	527
0	3951	52.741762907772	528
0	3956	52.852603883193	529
0	3967	53.031602843641	530
0	3980	53.185385715089	531
0	4004	53.600982824645	532
0	4006	53.634073812763	533
0	4016	53.755642860099	534
0	4021	53.843930914595	535
0	4023	53.863975134104	536
0	4025	53.870584335173	537
0	4035	53.942408983184	538
0	4040	54.008889758139	539
0	4050	54.095746331286	540
0	4066	54.475148709595	541
0	4079	54.630049877511	542
0	4092	54.839205534773	543
0	4102	54.9324667203	544
0	4104	54.973739706973	545
0	4106	54.998381289194	546
0	4128	55.324273386912	547
0	4132	55.385001315774	548
0	4134	55.411359027058	549
0	4147	55.622447904496	550
0	4169	55.920667972043	551
0	4173	55.988448172249	552
0	4188	56.272112191587	553
0	4199	56.397835891144	554
0	4210	56.558381767451	555
0	4214	56.624966016115	556
0	4225	56.724512380452	557
0	4229	56.847800426755	558
0	4242	57.055176573065	559
0	4253	57.12412002685	560
0	4255	57.158795357229	561
0	4268	57.344938521527	562
0	4281	57.533948691337	563
0	4283	57.555558312996	564
0	4287	57.651759505655	565
0	4298	57.80018375392	566
0	4300	57.801516278403	567
0	4324	58.167482011479	568
0	4326	58.210135592683	569
0	4339	58.408410483143	570
0	4341	58.424443892592	571
0	4354	58.576050785575	572
0	4378	58.976845751062	573
0	4402	59.397031693687	574
0	4404	59.462111427923	575
0	4417	59.602178997619	576
0	4419	59.670973345465	577
0	4421	59.671378977597	578
0	4431	59.773397686392	579
0	4436	59.804797476198	580
0	4438	59.850776607976	581
0	4448	59.903623330806	582
0	4450	59.918345834537	583
0	4452	59.974246601536	584
0	4465	60.14690993951	585
0	4467	60.182269597036	586
0	4469	60.203322925856	587
0	4474	60.254594390119	588
0	4484	60.326198921918	589
0	4486	60.339056945646	590
0	4488	60.364458083481	591
0	4512	60.759221410237	592
0	4514	60.769518246609	593
0	4516	60.821626128717	594
0	4529	61.019815162828	595
0	4540	61.104028793112	596
0	4558	61.46492289361	597
0	4566	61.507022223415	598
0	4581	61.831018520105	599
0	4594	61.98654795614	600
0	4607	62.223586714201	601
0	4609	62.276582872128	602
0	4622	62.425325847562	603
0	4624	62.469840781503	604
0	4635	62.510359069737	605
0	4637	62.561358153122	606
0	4639	62.569816102298	607
0	4643	62.605745492811	608
0	4645	62.658042258177	609
0	4658	62.807305474596	610
0	4660	62.83373252101	611
0	4679	63.094389701242	612
0	4682	63.108602252381	613
0	4686	63.147952493493	614
0	4688	63.153443230748	615
0	4703	63.458929208649	616
0	4714	63.588243994529	617
0	4716	63.589648653653	618
0	4718	63.590797978674	619
0	4722	63.667040347095	620
0	4733	63.814260762894	621
0	4737	63.850584984784	622
0	4739	63.86647830275	623
0	4758	64.080916849201	624
0	4760	64.089203076493	625
0	4762	64.118054347528	626
0	4764	64.127441802256	627
0	4769	64.240579679016	628
0	4779	64.352068421207	629
0	4792	64.518364999274	630
0	4794	64.546517401521	631
0	4799	64.603106855684	632
0	4801	64.657672627161	633
0	4814	64.797159536287	634
0	4818	64.878661369377	635
0	4829	65.055623351698	636
0	4842	65.252629108257	637
0	4852	65.300276966517	638
0	4857	65.430121530077	639
0	4859	65.440274938471	640
0	4861	65.471790941343	641
0	4871	65.501381128668	642
0	4873	65.51547791711	643
0	4878	65.605110837612	644
0	4880	65.610807490859	645
0	4882	65.675524961263	646
0	4892	65.711421093101	647
0	4894	65.7783513803	648
0	4898	65.808748536223	649
0	4901	65.870092445182	650
0	4911	65.930998890714	651
0	4913	66.005357209892	652
0	4926	66.120331348667	653
0	4928	66.178673725771	654
0	4939	66.297623350904	655
0	4954	66.489107576668	656
0	4956	66.522447910506	657
0	4961	66.57926495888	658
0	4965	66.627056757631	659
0	4979	66.802428222133	660
0	4981	66.822413775925	661
0	4993	66.893614582487	662
0	5001	67.04898913269	663
0	5003	67.058022857098	664
0	5005	67.063875646993	665
0	5018	67.171768337843	666
0	5031	67.291169674903	667
0	5033	67.314311772099	668
0	5040	67.465133295262	669
0	5058	67.653045138683	670
0	5071	67.803286418054	671
0	5084	67.917655480113	672
0	5086	67.947687988142	673
0	5090	67.967334176732	674
0	5095	68.014144822055	675
0	5097	68.021386733066	676
0	5109	68.109962797669	677
0	5111	68.110936338603	678
0	5114	68.142794723391	679
0	5131	68.365403122335	680
0	5134	68.411742125089	681
0	5136	68.426067427227	682
0	5138	68.448014243316	683
0	5155	68.599060403438	684
0	5158	68.660652331816	685
0	5182	68.919897192694	686
0	5184	68.924460997644	687
0	5191	69.050050346078	688
0	5208	69.210892130987	689
0	5211	69.278387228352	690
0	5219	69.286395113946	691
0	5225	69.349788326595	692
0	5228	69.422942860508	693
0	5246	69.637252830551	694
0	5248	69.673897959734	695
0	5261	69.740921147392	696
0	5267	69.827087896572	697
0	5276	69.880628331681	698
0	5298	70.201109214642	699
0	5301	70.220238819232	700
0	5313	70.323963328642	701
0	5316	70.388454177759	702
0	5318	70.392054460734	703
0	5333	70.545139302628	704
0	5337	70.60142182281	705
0	5348	70.682711658929	706
0	5352	70.754050087209	707
0	5354	70.771469603246	708
0	5359	70.848294937433	709
0	5361	70.863823495983	710
0	5374	70.978203033895	711
0	5385	71.083031944391	712
0	5387	71.11554903144	713
0	5393	71.19303326939	714
0	5395	71.206828592583	715
0	5398	71.246234349778	716
0	5408	71.296103583065	717
0	5410	71.312004784745	718
0	5430	71.6252877337	719
0	5432	71.642707605358	720
0	5435	71.663426123583	721
0	5437	71.677284805725	722
0	5460	71.911608798734	723
0	5463	71.998102609677	724
0	5469	72.076586311636	725
0	5477	72.086266058867	726
0	5480	72.147314343367	727
0	5497	72.388715986418	728
0	5510	72.60245815546	729
0	5512	72.611119854905	730
0	5514	72.672480275879	731
0	5527	72.833613475791	732
0	5538	72.962409673299	733
0	5551	73.172073300651	734
0	5555	73.222993549338	735
0	5557	73.232805501601	736
0	5570	73.467192465681	737
0	5578	73.522758356997	738
0	5583	73.639884726492	739
0	5593	73.703982081018	740
0	5598	73.824253459401	741
0	5608	73.911050457603	742
0	5610	73.950758552605	743
0	5617	74.076722669667	744
0	5628	74.218101002621	745
0	5630	74.220845212664	746
0	5640	74.321922128974	747
0	5645	74.453374338782	748
0	5653	74.480820690982	749
0	5660	74.62647671214	750
0	5662	74.643976216962	751
0	5664	74.644957660602	752
0	5676	74.804113272881	753
0	5679	74.840971566842	754
0	5700	75.160797064519	755
0	5702	75.18730637466	756
0	5707	75.248580919146	757
0	5715	75.318583482758	758
0	5719	75.407983623026	759
0	5741	75.715291145305	760
0	5754	75.91028883649	761
0	5758	75.991890692886	762
0	5760	76.052996449015	763
0	5762	76.063251638315	764
0	5784	76.366645895555	765
0	5788	76.463846984661	766
0	5799	76.549590494922	767
0	5812	76.748384440406	768
0	5824	76.920291371585	769
0	5827	76.937445234322	770
0	5840	77.176963213261	771
0	5866	77.665313112296	772
0	5877	77.834336607772	773
0	5879	77.843219846037	774
0	5881	77.860585502358	775
0	5883	77.870507655006	776
0	5893	77.969635605582	777
0	5898	78.07004072297	778
0	5908	78.120862668375	779
0	5924	78.419040634108	780
0	5926	78.425517203387	781
0	5945	78.701577648955	782
0	5949	78.756748010214	783
0	5951	78.816056169947	784
0	5956	78.845989008189	785
0	5966	78.976072750935	786
0	5979	79.165145666378	787
0	5990	79.300717517763	788
0	5992	79.304104703287	789
0	5994	79.340775218666	790
0	6009	79.660151405934	791
0	6013	79.672908763314	792
0	6022	79.716816461873	793
0	6024	79.775493342541	794
0	6028	79.819608823614	795
0	6030	79.869329752248	796
0	6032	79.870976080646	797
0	6043	79.946872558071	798
0	6045	79.967357784786	799
0	6058	80.154021831804	800
0	6062	80.205314530987	801
0	6070	80.282160788726	802
0	6086	80.547079614949	803
0	6090	80.661107502641	804
0	6092	80.671600777374	805
0	6103	80.76555097596	806
0	6118	81.056142936326	807
0	6120	81.06651001999	808
0	6133	81.270139438717	809
0	6141	81.27979356662	810
0	6143	81.340336944784	811
0	6145	81.346096236466	812
0	6150	81.385652796506	813
0	6152	81.394703543521	814
0	6154	81.421197037285	815
0	6156	81.448269476359	816
0	6166	81.543581730186	817
0	6179	81.726535945772	818
0	6181	81.729899337864	819
0	6186	81.803791339858	820
0	6188	81.805364252235	821
0	6190	81.877328742004	822
0	6200	81.933329579337	823
0	6205	82.03826379593	824
0	6207	82.045313990766	825
0	6217	82.123969899955	826
0	6219	82.152997241467	827
0	6221	82.156297639973	828
0	6223	82.181292721638	829
0	6228	82.268078908627	830
0	6236	82.2972735158	831
0	6243	82.444715738278	832
0	6245	82.458763309974	833
0	6253	82.505960118751	834
0	6255	82.507171043257	835
0	6259	82.574706630274	836
0	6261	82.586978131006	837
0	6285	82.986734478678	838
0	6296	83.083093748307	839
0	6298	83.111151340925	840
0	6315	83.477107552771	841
0	6324	83.523999685498	842
0	6348	83.988027685093	843
0	6350	83.992701175267	844
0	6354	84.045304254843	845
0	6362	84.082420426923	846
0	6364	84.100208102709	847
0	6371	84.278301570198	848
0	6382	84.380123328079	849
0	6394	84.544641670786	850
0	6397	84.612036015208	851
0	6407	84.714207849949	852
0	6433	85.168990235135	853
0	6436	85.214893027884	854
0	6438	85.221646443572	855
0	6440	85.259152637884	856
0	6453	85.412046524955	857
0	6463	85.573912631597	858
0	6468	85.607936353558	859
0	6470	85.615241519273	860
0	6472	85.642872038566	861
0	6482	85.757938297859	862
0	6487	85.866558628975	863
0	6495	85.914479898423	864
0	6499	85.942724569619	865
0	6504	86.043217900525	866
0	6514	86.152837156626	867
0	6527	86.414401249868	868
0	6538	86.487239007171	869
0	6545	86.679612864238	870
0	6553	86.734793076402	871
0	6557	86.803644465206	872
0	6568	86.884542434719	873
0	6570	86.940375113645	874
0	6574	86.974209725515	875
0	6585	87.147121689283	876
0	6589	87.269734910506	877
0	6602	87.403762506704	878
0	6604	87.457352386238	879
0	6615	87.516618128032	880
0	6617	87.561332118292	881
0	6638	87.908396626346	882
0	6651	88.084805365565	883
0	6653	88.129929245414	884
0	6669	88.388911859964	885
0	6671	88.439584181354	886
0	6673	88.44429410846	887
0	6686	88.578496082578	888
0	6688	88.604974309912	889
0	6690	88.664591499052	890
0	6700	88.70744225947	891
0	6715	88.984356707754	892
0	6726	89.15307853663	893
0	6728	89.182815889421	894
0	6752	89.606117469054	895
0	6757	89.654205291484	896
0	6778	90.001490862074	897
0	6789	90.120939856425	898
0	6802	90.356273333232	899
0	6817	90.583644049901	900
0	6819	90.618820788444	901
0	6821	90.631724638762	902
0	6854	91.114696663559	903
0	6856	91.142343935213	904
0	6858	91.171034844751	905
0	6860	91.196946070339	906
0	6864	91.208140524453	907
0	6866	91.275378814657	908
0	6888	91.576875641876	909
0	6901	91.798997060196	910
0	6903	91.825578715098	911
0	6907	91.869912154698	912
0	6918	91.986955727699	913
0	6920	92.035607641675	914
0	6922	92.041620478588	915
0	6943	92.290183587023	916
0	6948	92.421379895131	917
0	6950	92.433463034757	918
0	6963	92.646933274211	919
0	6973	92.746663166628	920
0	6975	92.778468621147	921
0	6979	92.792718915712	922
0	6982	92.840370497809	923
0	6990	92.887250066973	924
0	6994	92.934137882536	925
0	6996	92.973354011498	926
0	7009	93.111499919483	927
0	7014	93.225479460149	928
0	7016	93.252635039317	929
0	7026	93.411370762286	930
0	7030	93.430227234711	931
0	7039	93.500331785644	932
0	7043	93.559986777332	933
0	7045	93.595118905486	934
0	7047	93.631426789504	935
0	7062	93.848549377639	936
0	7073	94.031302004421	937
0	7078	94.074668489958	938
0	7086	94.101815486601	939
0	7090	94.23590565906	940
0	7101	94.305699413943	941
0	7105	94.386748728661	942
0	7118	94.672491263443	943
0	7128	94.694995512829	944
0	7131	94.795507077686	945
0	7135	94.875029297817	946
0	7148	95.076987748139	947
0	7159	95.150310282007	948
0	7172	95.432001455003	949
0	7176	95.47489263858	950
0	7187	95.613828489275	951
0	7189	95.616321298848	952
0	7199	95.736577033319	953
0	7203	95.752691291202	954
0	7225	96.096785695961	955
0	7227	96.110925007234	956
0	7254	96.629437949537	957
0	7264	96.75250983464	958
0	7268	96.812625299278	959
0	7279	96.936093286883	960
0	7281	96.943443924625	961
0	7286	97.03805409875	962
0	7288	97.072697431499	963
0	7298	97.184143254671	964
0	7300	97.200672555903	965
0	7305	97.260005612729	966
0	7313	97.314045882489	967
0	7317	97.433144027829	968
0	7321	97.447218543372	969
0	7330	97.494752510336	970
0	7334	97.587416370366	971
0	7336	97.597955983357	972
0	7338	97.646213504873	973
0	7360	97.968745113245	974
0	7375	98.194492792321	975
0	7377	98.202011973237	976
0	7399	98.545574312485	977
0	7401	98.54752324178	978
0	7405	98.62668415124	979
0	7427	99.015775160281	980
0	7431	99.047909190568	981
0	7433	99.063982194625	982
0	7444	99.153687496036	983
0	7446	99.18362279633	984
0	7459	99.41069380707	985
0	7461	99.434968350806	986
0	7471	99.487179481247	987
0	7476	99.57390868313	988
0	7478	99.654222360322	989
0	7502	100.026163191412	990
0	7504	100.057860929401	991
0	7512	100.089745034242	992
0	7516	100.150523510654	993
0	7538	100.501429865754	994
0	7542	100.55279842708	995
0	7544	100.555381231523	996
0	7546	100.583938123573	997
0	7559	100.802902795029	998
0	7564	100.873397727167	999
0	7574	100.996706599889	1000
0	7576	101.033868175372	1001
0	7581	101.066409847088	1002
0	7589	101.113096281444	1003
0	7602	101.338345568451	1004
0	7606	101.412783394591	1005
0	7608	101.415471456542	1006
0	7619	101.554339183929	1007
0	7623	101.652592018201	1008
0	7634	101.693164652588	1009
0	7636	101.733144179836	1010
0	7649	101.991055492915	1011
0	7673	102.332547983158	1012
0	7686	102.530829241185	1013
0	7688	102.549290828476	1014
0	7690	102.554282388719	1015
0	7703	102.786034994976	1016
0	7705	102.815290055095	1017
0	7709	102.855328208241	1018
0	7717	102.914411730281	1019
0	7730	103.134444662325	1020
0	7732	103.145496249985	1021
0	7737	103.217332833506	1022
0	7739	103.260176936385	1023
0	7749	103.331640355123	1024
0	7754	103.466385237492	1025
0	7764	103.515296078554	1026
0	7769	103.629400411979	1027
0	7779	103.704921593755	1028
0	7784	103.802309452903	1029
0	7803	104.091821214605	1030
0	7809	104.215791022667	1031
0	7823	104.439155007777	1032
0	7825	104.462086724941	1033
0	7835	104.575132444772	1034
0	7837	104.616941610666	1035
0	7848	104.718836928774	1036
0	7852	104.831612972131	1037
0	7863	104.911100255738	1038
0	7876	105.122490937203	1039
0	7878	105.154330238809	1040
0	7882	105.232785908501	1041
0	7884	105.248834319237	1042
0	7895	105.282060381595	1043