version 3
run General-0-20250512-12:20:33-12591
attr configname General
attr datetime 20250512-12:20:33
attr datetimef 20250512-122033
attr experiment General
attr inifile omnetpp.ini
attr iterationvars ""
attr iterationvarsd ""
attr iterationvarsf ""
attr measurement ""
attr network Network
attr processid 12591
attr repetition 0
attr replication #0
attr resultdir results
attr runnumber 0
attr seedset 0
config network Network
config sim-time-limit 400s
config Network.nodeTx.gen.generationInterval exponential(0.1)
config Network.nodeTx.gen.packetByteSize 12500
config Network.nodeTx.queue.bufferSize 2000000
config Network.nodeTx.traTx.bufferSize 2000000
config Network.queue0.bufferSize 200
config Network.queue1.bufferSize 200
config Network.nodeRx.traRx.bufferSize 200

vector 0 Network.nodeTx.traTx "buffer size" ETV
vector 1 Network.queue0 "Buffer size" ETV
vector 2 Network.nodeRx.traRx "buffer size" ETV
vector 3 Network.queue1 "Buffer size" ETV
vector 4 Network.nodeRx.sink Delay ETV
vector 5 Network.queue0 "Packets dropped" ETV
0	2	0.079587450457	1
0	5	0.169443489305	1
0	12	0.29503656511	1
0	26	0.480996986317	1
0	29	0.573319299464	1
0	44	0.768473833052	1
0	54	0.84719394705	1
0	69	1.03509035247	1
0	74	1.090195201137	1
0	85	1.187895843776	1
0	91	1.291711773842	1
0	95	1.340224590214	1
0	104	1.397776509902	2
0	106	1.433092423816	3
0	123	1.65544486602	1
0	125	1.661283332929	2
0	151	1.992774560922	1
0	154	2.024610175006	1
0	156	2.072970385501	2
0	162	2.137915020326	2
0	177	2.294804632088	1
0	188	2.46202575212	1
0	194	2.537293163451	1
0	205	2.602681420173	1
0	209	2.686624705463	2
0	213	2.736511906365	2
0	237	2.99633731495	1
0	244	3.177174241377	1
0	254	3.184542776924	1
0	256	3.225700576548	2
0	258	3.23481667916	3
0	264	3.339277929991	3
0	266	3.341320488831	4
0	277	3.387245302557	4
0	283	3.565994068901	4
0	311	3.881011061769	1
0	322	4.031589487633	1
0	324	4.046712572999	2
0	339	4.250743998793	1
0	354	4.454833220384	1
0	377	4.839355407298	1
0	382	4.903526324566	1
0	395	5.064050280272	1
0	409	5.225450487761	1
0	414	5.287343433724	1
0	418	5.360839875843	1
0	431	5.512493473242	1
0	444	5.626087367413	1
0	447	5.638674808357	1
0	453	5.766197578579	1
0	464	5.868340766014	1
0	470	5.955572885518	1
0	472	5.971045853568	2
0	483	6.048129319415	2
0	502	6.337571367214	1
0	514	6.479707835223	1
0	519	6.553490564399	1
0	521	6.564685180462	2
0	532	6.618241752485	2
0	538	6.682411222688	2
0	540	6.713139257903	3
0	542	6.733759586106	4
0	557	6.882585068681	3
0	568	7.016114087143	3
0	570	7.077022329461	4
0	576	7.101427178535	4
0	587	7.185460649096	4
0	589	7.199988451825	5
0	591	7.201885308745	6
0	593	7.241062389813	7
0	599	7.33720048372	7
0	601	7.353414132665	8
0	612	7.448113800382	8
0	614	7.473257993589	9
0	620	7.569212791326	9
0	631	7.618068496257	9
0	650	7.905859998385	7
0	665	8.138751335806	6
0	676	8.253265231276	6
0	682	8.313039838958	6
0	684	8.357591688463	7
0	695	8.452541146813	7
0	701	8.509994387487	7
0	716	8.742629493656	6
0	727	8.862240273602	6
0	729	8.87269639618	7
0	731	8.878907925227	8
0	759	9.228929293672	5
0	765	9.338820540427	5
0	776	9.444703953576	5
0	782	9.555763698145	5
0	784	9.574506304747	6
0	795	9.598126975355	6
0	797	9.642467378217	7
0	799	9.65627024706	8
0	814	9.795174516039	7
0	816	9.833070712467	8
0	822	9.926676868444	8
0	824	9.971887074466	9
0	835	10.011198330196	9
0	841	10.095641109549	9
0	843	10.09955942519	10
0	845	10.157291856271	11
0	856	10.257878956788	11
0	888	10.703328641406	7
0	912	11.022623305611	5
0	914	11.033386816427	6
0	920	11.139169457762	6
0	922	11.16259960964	7
0	933	11.263401534182	7
0	939	11.280992888725	7
0	976	11.817002923749	3
0	982	11.922877195258	3
0	993	12.010068780621	3
0	995	12.039276833948	4
0	1001	12.092783301656	4
0	1003	12.155577459755	5
0	1014	12.219955559915	5
0	1016	12.247983260763	6
0	1022	12.34566966817	6
0	1024	12.362982413785	7
0	1035	12.404232536777	7
0	1037	12.415928077756	8
0	1043	12.528244907909	8
0	1054	12.635052127624	8
0	1056	12.673207711961	9
0	1062	12.688078938886	9
0	1073	12.838742472213	9
0	1075	12.860630531864	10
0	1094	13.159349521049	8
0	1105	13.205350916823	8
0	1111	13.313977854911	8
0	1126	13.486011020683	7
0	1128	13.487377478526	8
0	1130	13.497591966678	9
0	1141	13.595102160094	9
0	1147	13.777084052022	9
0	1162	13.889065488597	8
0	1164	13.899168966128	9
0	1188	14.256527803362	7
0	1216	14.63143094932	4
0	1231	14.841963079399	3
0	1237	14.905196739039	3
0	1239	14.976455098372	4
0	1267	15.352647826822	1
0	1269	15.358380519464	2
0	1280	15.451228369154	2
0	1286	15.511223057818	2
0	1297	15.645647585033	2
0	1299	15.647666597848	3
0	1301	15.651664227754	4
0	1307	15.709952066641	4
0	1309	15.743193090737	5
0	1337	16.132350103022	2
0	1339	16.145155779553	3
0	1350	16.189697725745	3
0	1352	16.224815334683	4
0	1358	16.290379963119	4
0	1360	16.303018826762	5
0	1371	16.419706179417	5
0	1373	16.457976274303	6
0	1388	16.670399994003	5
0	1394	16.723888431579	5
0	1409	16.974279609888	4
0	1420	16.980909350036	4
0	1422	17.005348894844	5
0	1428	17.123267847551	5
0	1439	17.206552199158	5
0	1445	17.290161952355	5
0	1460	17.490486004606	4
0	1462	17.521327488616	5
0	1473	17.592452282338	5
0	1475	17.666528177383	6
0	1494	17.915086413081	4
0	1496	17.924951443923	5
0	1511	18.178981894719	4
0	1522	18.264771458826	4
0	1524	18.27344850706	5
0	1543	18.538374099928	3
0	1545	18.570908141481	4
0	1556	18.609264162891	4
0	1558	18.610204237957	5
0	1564	18.720288828966	5
0	1579	18.905021594066	4
0	1581	18.919154665422	5
0	1592	19.02333273084	5
0	1598	19.149326111851	5
0	1613	19.333454359	4
0	1615	19.367619775703	5
0	1626	19.398371548079	5
0	1628	19.418606591936	6
0	1630	19.469326604262	7
0	1636	19.557639508458	7
0	1647	19.638119248438	7
0	1649	19.640150494318	8
0	1651	19.658175719516	9
0	1666	19.834749826757	8
0	1672	19.880922916361	8
0	1674	19.88139357041	9
0	1676	19.897227721033	10
0	1687	20.01049113523	10
0	1693	20.094799438445	10
0	1695	20.12627160453	11
0	1706	20.247922469874	11
0	1721	20.380798257249	10
0	1723	20.414832931073	11
0	1742	20.742347248844	9
0	1753	20.799137664192	9
0	1755	20.827739761443	10
0	1761	20.968842202372	10
0	1772	21.054681499155	10
0	1778	21.105115879814	10
0	1789	21.194774966893	10
0	1804	21.421148324479	9
0	1810	21.506070405635	9
0	1821	21.607936278637	9
0	1823	21.633178277926	10
0	1838	21.855328967773	9
0	1857	22.160557133461	7
0	1868	22.274517929814	7
0	1874	22.333780332559	7
0	1885	22.393418271992	7
0	1900	22.580764259978	6
0	1919	22.965064918302	4
0	1934	23.085288775027	3
0	1936	23.097641439763	4
0	1938	23.13294345309	5
0	1949	23.278625308946	5
0	1964	23.446717529401	4
0	1970	23.499789779063	4
0	1972	23.550291653838	5
0	1983	23.662819855522	5
0	1998	23.875769795129	4
0	2004	23.904510842736	4
0	2015	23.991564425369	4
0	2017	24.02913830961	5
0	2032	24.242621354608	4
0	2051	24.579058399913	2
0	2066	24.696996693277	1
0	2077	24.785782834321	1
0	2083	24.914973761201	1
0	2094	25.022757249615	1
0	2100	25.092337195705	1
0	2102	25.168523972835	2
0	2128	25.481070808601	1
0	2131	25.507276532769	1
0	2142	25.610556233834	1
0	2144	25.66078731366	2
0	2150	25.715926912673	2
0	2161	25.812372269222	2
0	2167	25.905612557263	2
0	2169	25.970023028095	3
0	2171	25.97196100623	4
0	2182	26.035473777793	4
0	2184	26.07136649938	5
0	2199	26.197270851106	4
0	2205	26.305202870972	4
0	2207	26.33916934423	5
0	2209	26.3734293067	6
0	2220	26.421792875359	6
0	2226	26.518030380936	6
0	2237	26.65632830159	6
0	2243	26.712324408597	6
0	2258	26.923069169092	5
0	2260	26.937626566937	6
0	2262	26.948481276786	7
0	2273	26.983903690011	7
0	2275	26.993595965469	8
0	2277	27.077984812728	9
0	2283	27.121687614105	9
0	2294	27.211060521936	9
0	2300	27.291315720512	9
0	2302	27.376723694076	10
0	2311	27.380144035912	11
0	2319	27.48604497445	10
0	2343	27.833298522378	8
0	2349	27.938883483244	8
0	2351	27.977596492459	9
0	2362	28.034057542571	9
0	2364	28.059065692069	10
0	2383	28.285929091338	8
0	2385	28.301158453863	9
0	2387	28.346975742259	10
0	2389	28.357207803744	11
0	2400	28.414453958887	11
0	2428	28.828234934938	8
0	2443	29.050726400661	7
0	2447	29.080882991983	8
0	2460	29.244972749776	7
0	2466	29.321980435731	7
0	2477	29.443682385265	7
0	2483	29.503089735097	7
0	2485	29.51365099946	8
0	2487	29.52413918302	9
0	2502	29.776067396028	8
0	2513	29.819501961622	8
0	2519	29.944762714113	8
0	2530	30.008108975885	8
0	2575	30.684648027879	2
0	2586	30.868621306387	2
0	2592	30.884808315058	2
0	2607	31.119826044033	1
0	2622	31.322416925743	1
0	2625	31.326245217031	1
0	2627	31.343977774546	2
0	2636	31.414969567268	3
0	2642	31.51056620966	3
0	2646	31.528820069848	3
0	2648	31.542038440809	4
0	2661	31.69302078637	4
0	2676	31.881413675029	3
0	2691	32.081612324582	2
0	2704	32.246284234715	1
0	2708	32.299284522529	2
0	2719	32.383472618702	2
0	2721	32.398551719721	3
0	2725	32.45083872273	3
0	2727	32.454217401285	4
0	2729	32.461384939716	5
0	2757	32.866369623596	2
0	2770	32.985913480224	2
0	2774	33.032640736865	2
0	2778	33.09307064405	3
0	2782	33.147556356864	3
0	2793	33.275589777245	3
0	2797	33.280781032463	4
0	2812	33.482058306084	3
0	2816	33.527549490563	3
0	2842	33.898545549753	1
0	2844	33.900222326352	2
0	2859	34.093880050101	1
0	2861	34.120112981018	2
0	2863	34.12129130421	3
0	2876	34.266070712409	2
0	2880	34.310695994461	3
0	2904	34.599157169671	1
0	2912	34.730087006073	1
0	2924	34.868716141275	1
0	2929	34.887545638797	1
0	2931	34.929006893063	2
0	2942	35.002620003062	2
0	2946	35.069866054745	2
0	2948	35.075453060034	3
0	2952	35.116850952301	4
0	2954	35.139164873111	5
0	2956	35.158947823857	6
0	2958	35.160817370899	7
0	2962	35.179569266019	7
0	2975	35.33741053823	7
0	2986	35.399670272628	7
0	2988	35.425020843142	8
0	3003	35.632623949186	7
0	3007	35.674989659322	7
0	3024	35.963444088163	6
0	3048	36.226665974418	4
0	3054	36.32037984619	4
0	3065	36.442259526524	4
0	3071	36.533055929256	4
0	3073	36.536291609721	5
0	3088	36.689374732348	4
0	3090	36.707370466503	5
0	3094	36.776690443457	5
0	3105	36.873838659266	5
0	3107	36.879006949846	6
0	3111	36.965099313514	7
0	3126	37.085196404168	6
0	3128	37.112363211202	7
0	3165	37.600276500001	3
0	3182	37.872411325592	1
0	3186	37.903508106089	2
0	3197	37.998691076843	2
0	3203	38.112350726369	2
0	3214	38.189058691826	2
0	3229	38.388775888575	1
0	3233	38.477913746266	1
0	3246	38.616881452644	1
0	3252	38.74785998978	1
0	3276	39.081653423165	1
0	3279	39.119042072755	1
0	3290	39.199840078095	1
0	3292	39.250626590364	2
0	3294	39.274501877649	3
0	3300	39.298054334991	3
0	3302	39.323214196302	4
0	3304	39.34381740115	5
0	3306	39.36850332803	6
0	3330	39.65741088722	4
0	3336	39.741708764761	4
0	3347	39.876243508084	4
0	3353	39.936411406736	4
0	3364	40.0038358637	4
0	3383	40.355283731754	2
0	3392	40.381085008148	3
0	3400	40.495198798434	2
0	3402	40.524549563626	3
0	3404	40.533464992626	4
0	3406	40.539443088918	5
0	3408	40.54525032513	6
0	3419	40.602240081661	6
0	3421	40.66915145403	7
0	3427	40.706518433469	7
0	3442	40.919385442922	6
0	3453	41.038571253287	6
0	3481	41.41324071467	3
0	3483	41.460682343703	4
0	3489	41.55682630086	4
0	3491	41.576623074393	5
0	3502	41.654820646481	5
0	3504	41.657319481812	6
0	3519	41.8501554955	5
0	3521	41.857117262607	6
0	3536	41.993310435038	5
0	3542	42.107064285592	5
0	3544	42.172187358784	6
0	3555	42.232645480618	6
0	3561	42.345681035209	6
0	3572	42.422593015319	6
0	3578	42.51599904858	6
0	3593	42.742983050158	5
0	3604	42.868403377167	5
0	3636	43.332368629804	1
0	3647	43.395761631743	1
0	3649	43.420210733947	2
0	3653	43.481094025321	3
0	3666	43.589884468682	2
0	3681	43.826776285766	1
0	3683	43.857336775947	2
0	3685	43.872096379236	3
0	3687	43.874183101097	4
0	3693	43.900218242252	4
0	3704	44.042256587811	4
0	3719	44.255612916558	3
0	3725	44.294181685963	3
0	3740	44.528966062106	2
0	3742	44.577329900855	3
0	3755	44.681114908404	3
0	3759	44.769865101252	3
0	3770	44.809122404071	3
0	3785	44.986936737754	2
0	3787	45.060273505071	3
0	3793	45.159423934361	3
0	3795	45.159429469551	4
0	3810	45.365511593639	3
0	3821	45.402887923021	3
0	3823	45.434845388508	4
0	3829	45.490262471413	4
0	3840	45.650234415597	4
0	3855	45.866810783684	3
0	3861	45.887345560558	3
0	3872	46.001251325625	3
0	3891	46.306569792584	1
0	3893	46.367474253855	2
0	3908	46.483785582198	1
0	3910	46.549835890173	2
0	3912	46.57410773954	3
0	3927	46.729574033321	2
0	3951	47.024022061063	1
0	3954	47.050086074001	1
0	3967	47.181336873298	1
0	3982	47.393611538692	1
0	3985	47.422906684541	1
0	3987	47.460549619693	2
0	3991	47.484541971637	3
0	4017	47.800251525779	1
0	4020	47.873274292303	1
0	4026	47.937093152862	1
0	4028	47.939692927381	2
0	4039	48.064028005176	2
0	4043	48.087280507014	3
0	4047	48.103967971137	3
0	4049	48.159251808202	4
0	4062	48.290349045018	4
0	4066	48.337216692616	4
0	4077	48.441137256274	4
0	4083	48.50342018725	4
0	4085	48.527612151727	5
0	4087	48.560133753525	6
0	4096	48.580769552885	7
0	4100	48.669148118488	7
0	4115	48.833955735804	6
0	4130	49.033359655932	5
0	4136	49.170827651312	5
0	4145	49.183330910304	6
0	4151	49.295676960259	6
0	4155	49.368529344532	6
0	4166	49.400949255881	6
0	4168	49.415113459361	7
0	4170	49.434339603445	8
0	4176	49.560520870794	8
0	4189	49.682420805312	8
0	4193	49.732848798637	8
0	4202	49.795052490545	9
0	4206	49.87839031461	9
0	4221	50.061916654904	8
0	4225	50.082162531274	9
0	4229	50.105086963795	9
0	4231	50.120734540833	10
0	4233	50.138761970791	11
0	4244	50.205716029877	11
0	4246	50.219050092204	12
0	4248	50.262995631253	13
0	4261	50.391038066651	13
0	4278	50.673101661493	11
0	4280	50.676194290649	12
0	4295	50.821149768292	11
0	4301	50.958584069734	11
0	4314	51.096680379301	11
0	4318	51.106397147138	11
0	4333	51.340446343204	10
0	4335	51.364966152468	11
0	4337	51.373677010794	12
0	4352	51.512008657409	11
0	4361	51.592347833676	12
0	4369	51.723910459506	11
0	4380	51.811731967378	11
0	4382	51.816400741742	12
0	4401	52.143250381824	10
0	4403	52.16671596675	11
0	4414	52.201267925121	11
0	4416	52.235083396605	12
0	4418	52.262636190309	13
0	4424	52.375728038228	13
0	4433	52.386296755638	14
0	4435	52.392808042117	15
0	4437	52.394464651559	16
0	4441	52.475578753782	16
0	4460	52.740834605334	14
0	4462	52.741762907772	15
0	4473	52.852603883193	15
0	4488	53.031602843641	14
0	4501	53.185385715089	14
0	4531	53.600982824645	10
0	4533	53.634073812763	11
0	4539	53.755642860099	11
0	4550	53.843930914595	11
0	4552	53.863975134104	12
0	4554	53.870584335173	13
0	4560	53.942408983184	13
0	4571	54.008889758139	13
0	4575	54.095746331286	14
0	4601	54.475148709595	11
0	4616	54.630049877511	10
0	4631	54.839205534773	9
0	4637	54.9324667203	9
0	4639	54.973739706973	10
0	4648	54.998381289194	11
0	4669	55.324273386912	8
0	4678	55.385001315774	9
0	4682	55.411359027058	9
0	4697	55.622447904496	8
0	4716	55.920667972043	6
0	4725	55.988448172249	7
0	4742	56.272112191587	5
0	4755	56.397835891144	5
0	4763	56.558381767451	4
0	4774	56.624966016115	4
0	4780	56.724512380452	4
0	4791	56.847800426755	4
0	4806	57.055176573065	3
0	4812	57.12412002685	3
0	4814	57.158795357229	4
0	4829	57.344938521527	3
0	4844	57.533948691337	2
0	4846	57.555558312996	3
0	4857	57.651759505655	3
0	4870	57.80018375392	3
0	4874	57.801516278403	3
0	4893	58.167482011479	1
0	4904	58.210135592683	1
0	4919	58.408410483143	1
0	4922	58.424443892592	1
0	4928	58.576050785575	1
0	4952	58.976845751062	1
0	4982	59.397031693687	1
0	4985	59.462111427923	1
0	5000	59.602178997619	1
0	5003	59.670973345465	1
0	5005	59.671378977597	2
0	5011	59.773397686392	2
0	5022	59.804797476198	2
0	5024	59.850776607976	3
0	5030	59.903623330806	3
0	5032	59.918345834537	4
0	5034	59.974246601536	5
0	5049	60.14690993951	4
0	5058	60.182269597036	5
0	5062	60.203322925856	5
0	5064	60.254594390119	6
0	5070	60.326198921918	6
0	5072	60.339056945646	7
0	5074	60.364458083481	8
0	5102	60.759221410237	5
0	5104	60.769518246609	6
0	5115	60.821626128717	6
0	5130	61.019815162828	5
0	5136	61.104028793112	5
0	5160	61.46492289361	3
0	5166	61.507022223415	3
0	5190	61.831018520105	1
0	5203	61.98654795614	1
0	5218	62.223586714201	1
0	5221	62.276582872128	1
0	5236	62.425325847562	1
0	5239	62.469840781503	1
0	5243	62.510359069737	2
0	5247	62.561358153122	2
0	5249	62.569816102298	3
0	5258	62.605745492811	4
0	5262	62.658042258177	4
0	5275	62.807305474596	4
0	5279	62.83373252101	4
0	5296	63.094389701242	3
0	5298	63.108602252381	4
0	5302	63.147952493493	4
0	5304	63.153443230748	5
0	5328	63.458929208649	3
0	5341	63.588243994529	3
0	5343	63.589648653653	4
0	5345	63.590797978674	5
0	5349	63.667040347095	5
0	5362	63.814260762894	5
0	5366	63.850584984784	5
0	5368	63.86647830275	6
0	5385	64.080916849201	5
0	5387	64.089203076493	6
0	5389	64.118054347528	7
0	5393	64.127441802256	7
0	5404	64.240579679016	7
0	5410	64.352068421207	7
0	5423	64.518364999274	7
0	5427	64.546517401521	7
0	5436	64.603106855684	8
0	5440	64.657672627161	8
0	5453	64.797159536287	8
0	5457	64.878661369377	8
0	5472	65.055623351698	7
0	5487	65.252629108257	6
0	5491	65.300276966517	7
0	5504	65.430121530077	6
0	5506	65.440274938471	7
0	5508	65.471790941343	8
0	5512	65.501381128668	9
0	5514	65.51547791711	10
0	5525	65.605110837612	10
0	5527	65.610807490859	11
0	5531	65.675524961263	11
0	5535	65.711421093101	12
0	5539	65.7783513803	12
0	5548	65.808748536223	13
0	5552	65.870092445182	13
0	5558	65.930998890714	13
0	5567	66.005357209892	14
0	5573	66.120331348667	14
0	5577	66.178673725771	14
0	5590	66.297623350904	14
0	5605	66.489107576668	13
0	5607	66.522447910506	14
0	5611	66.57926495888	14
0	5622	66.627056757631	14
0	5635	66.802428222133	14
0	5637	66.822413775925	15
0	5643	66.893614582487	15
0	5656	67.04898913269	14
0	5658	67.058022857098	15
0	5660	67.063875646993	16
0	5666	67.171768337843	16
0	5679	67.291169674903	16
0	5681	67.314311772099	17
0	5694	67.465133295262	16
0	5709	67.653045138683	15
0	5722	67.803286418054	15
0	5728	67.917655480113	15
0	5732	67.947687988142	15
0	5734	67.967334176732	16
0	5743	68.014144822055	17
0	5745	68.021386733066	18
0	5751	68.109962797669	18
0	5753	68.110936338603	19
0	5757	68.142794723391	19
0	5772	68.365403122335	18
0	5781	68.411742125089	19
0	5785	68.426067427227	19
0	5787	68.448014243316	20
0	5800	68.599060403438	20
0	5804	68.660652331816	20
0	5821	68.919897192694	19
0	5823	68.924460997644	20
0	5836	69.050050346078	19
0	5849	69.210892130987	19
0	5853	69.278387228352	19
0	5857	69.286395113946	20
0	5861	69.349788326595	20
0	5870	69.422942860508	21
0	5887	69.637252830551	19
0	5889	69.673897959734	20
0	5895	69.740921147392	20
0	5906	69.827087896572	20
0	5910	69.880628331681	21
0	5934	70.201109214642	19
0	5936	70.220238819232	20
0	5942	70.323963328642	20
0	5953	70.388454177759	20
0	5955	70.392054460734	21
0	5963	70.545139302628	20
0	5972	70.60142182281	21
0	5978	70.682711658929	21
0	5982	70.754050087209	21
0	5984	70.771469603246	22
0	5995	70.848294937433	22
0	5997	70.863823495983	23
0	6003	70.978203033895	23
0	6016	71.083031944391	23
0	6018	71.11554903144	24
0	6029	71.19303326939	24
0	6031	71.206828592583	25
0	6035	71.246234349778	25
0	6039	71.296103583065	26
0	6041	71.312004784745	27
0	6065	71.6252877337	25
0	6069	71.642707605358	25
0	6071	71.663426123583	26
0	6073	71.677284805725	27
0	6090	71.911608798734	26
0	6101	71.998102609677	26
0	6105	72.076586311636	26
0	6109	72.086266058867	27
0	6113	72.147314343367	27
0	6135	72.388715986418	26
0	6150	72.60245815546	25
0	6152	72.611119854905	26
0	6156	72.672480275879	26
0	6171	72.833613475791	25
0	6177	72.962409673299	25
0	6192	73.172073300651	24
0	6201	73.222993549338	25
0	6205	73.232805501601	25
0	6220	73.467192465681	24
0	6224	73.522758356997	25
0	6237	73.639884726492	24
0	6241	73.703982081018	25
0	6252	73.824253459401	25
0	6258	73.911050457603	25
0	6262	73.950758552605	25
0	6273	74.076722669667	25
0	6286	74.218101002621	25
0	6288	74.220845212664	26
0	6294	74.321922128974	26
0	6307	74.453374338782	25
0	6311	74.480820690982	26
0	6324	74.62647671214	25
0	6326	74.643976216962	26
0	6328	74.644957660602	27
0	6341	74.804113272881	27
0	6345	74.840971566842	27
0	6364	75.160797064519	25
0	6373	75.18730637466	26
0	6377	75.248580919146	26
0	6381	75.318583482758	27
0	6392	75.407983623026	27
0	6411	75.715291145305	25
0	6426	75.91028883649	24
0	6437	75.991890692886	24
0	6441	76.052996449015	24
0	6443	76.063251638315	25
0	6462	76.366645895555	23
0	6473	76.463846984661	23
0	6479	76.549590494922	23
0	6494	76.748384440406	22
0	6507	76.920291371585	22
0	6511	76.937445234322	22
0	6526	77.176963213261	21
0	6563	77.665313112296	17
0	6578	77.834336607772	16
0	6580	77.843219846037	17
0	6582	77.860585502358	18
0	6584	77.870507655006	19
0	6590	77.969635605582	19
0	6601	78.07004072297	19
0	6605	78.120862668375	20
0	6629	78.419040634108	18
0	6633	78.425517203387	18
0	6650	78.701577648955	17
0	6654	78.756748010214	17
0	6663	78.816056169947	18
0	6667	78.845989008189	18
0	6673	78.976072750935	18
0	6688	79.165145666378	17
0	6701	79.300717517763	17
0	6703	79.304104703287	18
0	6707	79.340775218666	18
0	6731	79.660151405934	16
0	6733	79.672908763314	17
0	6737	79.716816461873	18
0	6741	79.775493342541	18
0	6750	79.819608823614	19
0	6754	79.869329752248	19
0	6756	79.870976080646	20
0	6762	79.946872558071	20
0	6764	79.967357784786	21
0	6779	80.154021831804	20
0	6788	80.205314530987	21
0	6794	80.282160788726	21
0	6811	80.547079614949	19
0	6822	80.661107502641	19
0	6824	80.671600777374	20
0	6830	80.76555097596	20
0	6854	81.056142936326	18
0	6856	81.06651001999	19
0	6871	81.270139438717	18
0	6875	81.27979356662	19
0	6879	81.340336944784	19
0	6881	81.346096236466	20
0	6890	81.385652796506	21
0	6892	81.394703543521	22
0	6894	81.421197037285	23
0	6898	81.448269476359	23
0	6904	81.543581730186	23
0	6919	81.726535945772	22
0	6921	81.729899337864	23
0	6930	81.803791339858	24
0	6932	81.805364252235	25
0	6936	81.877328742004	25
0	6942	81.933329579337	25
0	6953	82.03826379593	25
0	6955	82.045313990766	26
0	6959	82.123969899955	27
0	6963	82.152997241467	27
0	6965	82.156297639973	28
0	6974	82.181292721638	29
0	6978	82.268078908627	29
0	6982	82.2972735158	30
0	6995	82.444715738278	29
0	6997	82.458763309974	30
0	7001	82.505960118751	31
0	7003	82.507171043257	32
0	7007	82.574706630274	32
0	7016	82.586978131006	33
0	7044	82.986734478678	30
0	7050	83.083093748307	30
0	7052	83.111151340925	31
0	7078	83.477107552771	28
0	7082	83.523999685498	29
0	7119	83.988027685093	25
0	7121	83.992701175267	26
0	7125	84.045304254843	26
0	7129	84.082420426923	27
0	7131	84.100208102709	28
0	7144	84.278301570198	27
0	7157	84.380123328079	27
0	7165	84.544641670786	26
0	7174	84.612036015208	27
0	7180	84.714207849949	27
0	7210	85.168990235135	23
0	7219	85.214893027884	24
0	7221	85.221646443572	25
0	7225	85.259152637884	25
0	7238	85.412046524955	25
0	7246	85.573912631597	24
0	7255	85.607936353558	25
0	7257	85.615241519273	26
0	7261	85.642872038566	26
0	7267	85.757938297859	26
0	7278	85.866558628975	26
0	7282	85.914479898423	27
0	7286	85.942724569619	27
0	7297	86.043217900525	27
0	7303	86.152837156626	27
0	7325	86.414401249868	26
0	7331	86.487239007171	26
0	7344	86.679612864238	25
0	7350	86.734793076402	25
0	7359	86.803644465206	26
0	7365	86.884542434719	26
0	7369	86.940375113645	26
0	7371	86.974209725515	27
0	7386	87.147121689283	26
0	7397	87.269734910506	26
0	7410	87.403762506704	26
0	7414	87.457352386238	26
0	7418	87.516618128032	27
0	7422	87.561332118292	27
0	7448	87.908396626346	25
0	7463	88.084805365565	24
0	7467	88.129929245414	24
0	7489	88.388911859964	23
0	7493	88.439584181354	23
0	7495	88.44429410846	24
0	7501	88.578496082578	24
0	7510	88.604974309912	25
0	7514	88.664591499052	25
0	7518	88.70744225947	26
0	7542	88.984356707754	24
0	7550	89.15307853663	23
0	7559	89.182815889421	24
0	7587	89.606117469054	21
0	7591	89.654205291484	21
0	7617	90.001490862074	19
0	7623	90.120939856425	19
0	7640	90.356273333232	17
0	7662	90.583644049901	16
0	7664	90.618820788444	17
0	7668	90.631724638762	17
0	7698	91.114696663559	14
0	7702	91.142343935213	14
0	7704	91.171034844751	15
0	7713	91.196946070339	16
0	7715	91.208140524453	17
0	7719	91.275378814657	17
0	7738	91.576875641876	15
0	7760	91.798997060196	14
0	7764	91.825578715098	14
0	7766	91.869912154698	15
0	7779	91.986955727699	15
0	7783	92.035607641675	15
0	7785	92.041620478588	16
0	7802	92.290183587023	15
0	7813	92.421379895131	15
0	7817	92.433463034757	15
0	7832	92.646933274211	14
0	7838	92.746663166628	14
0	7840	92.778468621147	15
0	7849	92.792718915712	16
0	7853	92.840370497809	16
0	7857	92.887250066973	17
0	7861	92.934137882536	17
0	7863	92.973354011498	18
0	7876	93.111499919483	18
0	7889	93.225479460149	17
0	7891	93.252635039317	18
0	7904	93.411370762286	18
0	7908	93.430227234711	18
0	7912	93.500331785644	19
0	7916	93.559986777332	19
0	7925	93.595118905486	20
0	7929	93.631426789504	20
0	7944	93.848549377639	19
0	7959	94.031302004421	18
0	7961	94.074668489958	19
0	7965	94.101815486601	20
0	7978	94.23590565906	19
0	7982	94.305699413943	20
0	7993	94.386748728661	20
0	8010	94.672491263443	18
0	8014	94.694995512829	19
0	8025	94.795507077686	19
0	8029	94.875029297817	19
0	8044	95.076987748139	18
0	8050	95.150310282007	18
0	8074	95.432001455003	16
0	8076	95.47489263858	17
0	8089	95.613828489275	17
0	8091	95.616321298848	18
0	8099	95.736577033319	17
0	8101	95.752691291202	18
0	8127	96.096785695961	16
0	8129	96.110925007234	17
0	8168	96.629437949537	12
0	8174	96.75250983464	12
0	8183	96.812625299278	13
0	8191	96.936093286883	12
0	8193	96.943443924625	13
0	8204	97.03805409875	13
0	8206	97.072697431499	14
0	8219	97.184143254671	14
0	8221	97.200672555903	15
0	8225	97.260005612729	15
0	8229	97.314045882489	16
0	8242	97.433144027829	15
0	8244	97.447218543372	16
0	8248	97.494752510336	17
0	8259	97.587416370366	17
0	8261	97.597955983357	18
0	8265	97.646213504873	18
0	8284	97.968745113245	16
0	8306	98.194492792321	15
0	8308	98.202011973237	16
0	8329	98.545574312485	13
0	8331	98.54752324178	14
0	8342	98.62668415124	14
0	8368	99.015775160281	12
0	8372	99.047909190568	12
0	8374	99.063982194625	13
0	8380	99.153687496036	13
0	8389	99.18362279633	14
0	8404	99.41069380707	13
0	8408	99.434968350806	13
0	8412	99.487179481247	14
0	8416	99.57390868313	14
0	8427	99.654222360322	14
0	8455	100.026163191412	11
0	8457	100.057860929401	12
0	8461	100.089745034242	13
0	8465	100.150523510654	13
0	8491	100.501429865754	11
0	8495	100.55279842708	11
0	8497	100.555381231523	12
0	8506	100.583938123573	13
0	8521	100.802902795029	12
0	8525	100.873397727167	12
0	8538	100.996706599889	12
0	8542	101.033868175372	12
0	8544	101.066409847088	13
0	8548	101.113096281444	14
0	8565	101.338345568451	12
0	8574	101.412783394591	13
0	8576	101.415471456542	14
0	8584	101.554339183929	13
0	8595	101.652592018201	13
0	8599	101.693164652588	14
0	8603	101.733144179836	14
0	8625	101.991055492915	13
0	8646	102.332547983158	10
0	8661	102.530829241185	9
0	8663	102.549290828476	10
0	8665	102.554282388719	11
0	8687	102.786034994976	10
0	8689	102.815290055095	11
0	8693	102.855328208241	11
0	8697	102.914411730281	12
0	8714	103.134444662325	10
0	8716	103.145496249985	11
0	8725	103.217332833506	12
0	8729	103.260176936385	12
0	8735	103.331640355123	12
0	8746	103.466385237492	12
0	8750	103.515296078554	13
0	8763	103.629400411979	12
0	8767	103.704921593755	13
0	8778	103.802309452903	13
0	8797	104.091821214605	11
0	8808	104.215791022667	11
0	8825	104.439155007777	9
0	8827	104.462086724941	10
0	8833	104.575132444772	10
0	8842	104.616941610666	11
0	8848	104.718836928774	11
0	8861	104.831612972131	10
0	8865	104.911100255738	11
0	8880	105.122490937203	10
0	8884	105.154330238809	10
0	8895	105.232785908501	10
0	8897	105.248834319237	11
0	8901	105.282060381595	12
0	8914	105.476065202583	11
0	8916	105.479135379884	12
0	8929	105.579936733932	12
0	8935	105.70384038467	12
0	8939	105.739456962826	12
0	8941	105.740248497477	13
0	8950	105.801907806329	14
0	8954	105.848537508973	14
0	8956	105.851020829748	15
0	8962	105.926637454527	15
0	8971	106.008296723412	16
0	8988	106.263544372767	14
0	8992	106.308353169605	15
0	8994	106.317728708366	16
0	9005	106.387586808974	16
0	9009	106.439664695461	16
0	9011	106.456344271273	17
0	9013	106.45880563568	18
0	9017	106.514232483021	19
0	9021	106.556180415368	19
0	9043	106.792809441753	18
0	9049	106.890156696118	18
0	9051	106.891011497983	19
0	9053	106.923732536116	20
0	9079	107.270671919994	17
0	9083	107.294212506644	18
0	9094	107.411619520323	18
0	9096	107.423915777012	19
0	9100	107.434387004355	19
0	9104	107.520458475106	20
0	9108	107.554675944268	20
0	9119	107.673508860297	20
0	9125	107.75096053909	20
0	9136	107.86242163939	20
0	9149	107.991210663301	20
0	9168	108.288531497249	18
0	9172	108.337775634887	18
0	9174	108.338046322345	19
0	9176	108.363804808979	20
0	9187	108.467989255461	20
0	9193	108.528660496385	20
0	9202	108.620387676076	21
0	9223	108.97823784866	18
0	9234	109.067090719893	18
0	9249	109.246558031293	17
0	9268	109.575622914319	15
0	9290	109.82188734126	14
0	9292	109.823588903633	15
0	9300	109.933635756681	14
0	9311	110.052867334103	14
0	9315	110.110968199649	15
0	9328	110.278996439657	14
0	9341	110.394543912532	14
0	9345	110.465839560445	14
0	9351	110.570422089724	14
0	9360	110.611063376399	15
0	9362	110.614016557515	16
0	9370	110.770482212585	15
0	9392	111.02247108197	14
0	9396	111.032701260071	14
0	9400	111.110889702381	15
0	9404	111.169235719612	15
0	9441	111.641875239298	11
0	9445	111.715262236	12
0	9449	111.763567538426	12
0	9462	111.881970312061	12
0	9475	112.046305635582	11
0	9477	112.055834083869	12
0	9481	112.117639321583	13
0	9485	112.143485246455	13
0	9498	112.318830058283	13
0	9502	112.371644457355	13
0	9513	112.449105830991	13
0	9519	112.546735033288	13
0	9534	112.765006422217	12
0	9556	112.983008466933	11
0	9571	113.195123912618	10
0	9577	113.291573888794	10
0	9581	113.331368728259	10
0	9583	113.345693598638	11
0	9592	113.397516383448	12
0	9620	113.791662251911	9
0	9624	113.870330563457	9
0	9639	114.075735811843	8
0	9645	114.172940708691	8
0	9656	114.242801065386	8
0	9660	114.29050084048	9
0	9677	114.546052612146	7
0	9686	114.624169491145	8
0	9692	114.702122994028	8
0	9694	114.715010858632	9
0	9711	114.971804121502	7
0	9724	115.085965673854	7
0	9737	115.263101005786	6
0	9741	115.296945119068	7
0	9767	115.642046132004	4
0	9769	115.646438855417	5
0	9786	115.898740601552	4
0	9788	115.911081548703	5
0	9790	115.914751455731	6